(written by ASE)

11328 atoms
2 atom types

0.0      43.739602782121665  xlo xhi
0.0      43.739602782121665  ylo yhi
0.0      82.011755216478122  zlo zhi

Atoms # charge

     1   1   2.4                       0                       0                       0
     2   1   2.4 -1.4997388508859269e-16      2.7337251738826027      2.7337251738826041
     3   1   2.4      2.7337251738826027                       0      2.7337251738826041
     4   1   2.4      2.7337251738826027      2.7337251738826027  2.9995703239834954e-16
     5   1   2.4                       0                       0      5.4674503477652081
     6   1   2.4 -1.4997388508859269e-16      2.7337251738826027      8.2011755216478122
     7   1   2.4      2.7337251738826027                       0      8.2011755216478122
     8   1   2.4      2.7337251738826027      2.7337251738826027      5.4674503477652081
     9   1   2.4                       0                       0      10.934900695530416
    10   1   2.4 -1.4997388508859269e-16      2.7337251738826027       13.66862586941302
    11   1   2.4      2.7337251738826027                       0       13.66862586941302
    12   1   2.4      2.7337251738826027      2.7337251738826027      10.934900695530416
    13   1   2.4                       0                       0      16.402351043295624
    14   1   2.4 -1.4997388508859269e-16      2.7337251738826027      19.136076217178225
    15   1   2.4      2.7337251738826027                       0      19.136076217178225
    16   1   2.4      2.7337251738826027      2.7337251738826027      16.402351043295624
    17   1   2.4                       0                       0      21.869801391060832
    18   1   2.4 -1.4997388508859269e-16      2.7337251738826027      24.603526564943436
    19   1   2.4      2.7337251738826027                       0      24.603526564943436
    20   1   2.4      2.7337251738826027      2.7337251738826027      21.869801391060832
    21   1   2.4                       0                       0      27.337251738826041
    22   1   2.4 -1.4997388508859269e-16      2.7337251738826027      30.070976912708637
    23   1   2.4      2.7337251738826027                       0      30.070976912708637
    24   1   2.4      2.7337251738826027      2.7337251738826027      27.337251738826041
    25   1   2.4                       0                       0      32.804702086591249
    26   1   2.4 -1.4997388508859269e-16      2.7337251738826027      35.538427260473853
    27   1   2.4      2.7337251738826027                       0      35.538427260473853
    28   1   2.4      2.7337251738826027      2.7337251738826027      32.804702086591249
    29   1   2.4                       0                       0       38.27215243435645
    30   1   2.4 -1.4997388508859269e-16      2.7337251738826027      41.005877608239047
    31   1   2.4      2.7337251738826027                       0      41.005877608239047
    32   1   2.4      2.7337251738826027      2.7337251738826027       38.27215243435645
    33   1   2.4                       0                       0      43.739602782121665
    34   1   2.4 -1.4997388508859269e-16      2.7337251738826027      46.473327956004269
    35   1   2.4      2.7337251738826027                       0      46.473327956004269
    36   1   2.4      2.7337251738826027      2.7337251738826027      43.739602782121665
    37   1   2.4                       0                       0      49.207053129886873
    38   1   2.4 -1.4997388508859269e-16      2.7337251738826027      51.940778303769477
    39   1   2.4      2.7337251738826027                       0      51.940778303769477
    40   1   2.4      2.7337251738826027      2.7337251738826027      49.207053129886873
    41   1   2.4                       0                       0      54.674503477652081
    42   1   2.4 -1.4997388508859269e-16      2.7337251738826027      57.408228651534671
    43   1   2.4      2.7337251738826027                       0      57.408228651534671
    44   1   2.4      2.7337251738826027      2.7337251738826027      54.674503477652081
    45   1   2.4                       0                       0      60.141953825417275
    46   1   2.4 -1.4997388508859269e-16      2.7337251738826027      62.875678999299879
    47   1   2.4      2.7337251738826027                       0      62.875678999299879
    48   1   2.4      2.7337251738826027      2.7337251738826027      60.141953825417275
    49   1   2.4                       0                       0      65.609404173182497
    50   1   2.4 -1.4997388508859269e-16      2.7337251738826027      68.343129347065101
    51   1   2.4      2.7337251738826027                       0      68.343129347065101
    52   1   2.4      2.7337251738826027      2.7337251738826027      65.609404173182497
    53   1   2.4                       0                       0      71.076854520947705
    54   1   2.4 -1.4997388508859269e-16      2.7337251738826027      73.810579694830295
    55   1   2.4      2.7337251738826027                       0      73.810579694830295
    56   1   2.4      2.7337251738826027      2.7337251738826027      71.076854520947705
    57   1   2.4                       0                       0      76.544304868712899
    58   1   2.4 -1.4997388508859269e-16      2.7337251738826027      79.278030042595503
    59   1   2.4      2.7337251738826027                       0      79.278030042595503
    60   1   2.4      2.7337251738826027      2.7337251738826027      76.544304868712899
    61   1   2.4                       0      5.4674503477652054                       0
    62   1   2.4 -1.4997388508859269e-16      8.2011755216478086      2.7337251738826041
    63   1   2.4      2.7337251738826027      5.4674503477652054      2.7337251738826041
    64   1   2.4      2.7337251738826027      8.2011755216478086  2.9995703239834954e-16
    65   1   2.4                       0      5.4674503477652054      5.4674503477652081
    66   1   2.4 -1.4997388508859269e-16      8.2011755216478086      8.2011755216478122
    67   1   2.4      2.7337251738826027      5.4674503477652054      8.2011755216478122
    68   1   2.4      2.7337251738826027      8.2011755216478086      5.4674503477652081
    69   1   2.4                       0      5.4674503477652054      10.934900695530416
    70   1   2.4 -1.4997388508859269e-16      8.2011755216478086       13.66862586941302
    71   1   2.4      2.7337251738826027      5.4674503477652054       13.66862586941302
    72   1   2.4      2.7337251738826027      8.2011755216478086      10.934900695530416
    73   1   2.4                       0      5.4674503477652054      16.402351043295624
    74   1   2.4 -1.4997388508859269e-16      8.2011755216478086      19.136076217178225
    75   1   2.4      2.7337251738826027      5.4674503477652054      19.136076217178225
    76   1   2.4      2.7337251738826027      8.2011755216478086      16.402351043295624
    77   1   2.4                       0      5.4674503477652054      21.869801391060832
    78   1   2.4 -1.4997388508859269e-16      8.2011755216478086      24.603526564943436
    79   1   2.4      2.7337251738826027      5.4674503477652054      24.603526564943436
    80   1   2.4      2.7337251738826027      8.2011755216478086      21.869801391060832
    81   1   2.4                       0      5.4674503477652054      27.337251738826041
    82   1   2.4 -1.4997388508859269e-16      8.2011755216478086      30.070976912708637
    83   1   2.4      2.7337251738826027      5.4674503477652054      30.070976912708637
    84   1   2.4      2.7337251738826027      8.2011755216478086      27.337251738826041
    85   1   2.4                       0      5.4674503477652054      32.804702086591249
    86   1   2.4 -1.4997388508859269e-16      8.2011755216478086      35.538427260473853
    87   1   2.4      2.7337251738826027      5.4674503477652054      35.538427260473853
    88   1   2.4      2.7337251738826027      8.2011755216478086      32.804702086591249
    89   1   2.4                       0      5.4674503477652054       38.27215243435645
    90   1   2.4 -1.4997388508859269e-16      8.2011755216478086      41.005877608239047
    91   1   2.4      2.7337251738826027      5.4674503477652054      41.005877608239047
    92   1   2.4      2.7337251738826027      8.2011755216478086       38.27215243435645
    93   1   2.4                       0      5.4674503477652054      43.739602782121665
    94   1   2.4 -1.4997388508859269e-16      8.2011755216478086      46.473327956004269
    95   1   2.4      2.7337251738826027      5.4674503477652054      46.473327956004269
    96   1   2.4      2.7337251738826027      8.2011755216478086      43.739602782121665
    97   1   2.4                       0      5.4674503477652054      49.207053129886873
    98   1   2.4 -1.4997388508859269e-16      8.2011755216478086      51.940778303769477
    99   1   2.4      2.7337251738826027      5.4674503477652054      51.940778303769477
   100   1   2.4      2.7337251738826027      8.2011755216478086      49.207053129886873
   101   1   2.4                       0      5.4674503477652054      54.674503477652081
   102   1   2.4 -1.4997388508859269e-16      8.2011755216478086      57.408228651534671
   103   1   2.4      2.7337251738826027      5.4674503477652054      57.408228651534671
   104   1   2.4      2.7337251738826027      8.2011755216478086      54.674503477652081
   105   1   2.4                       0      5.4674503477652054      60.141953825417275
   106   1   2.4 -1.4997388508859269e-16      8.2011755216478086      62.875678999299879
   107   1   2.4      2.7337251738826027      5.4674503477652054      62.875678999299879
   108   1   2.4      2.7337251738826027      8.2011755216478086      60.141953825417275
   109   1   2.4                       0      5.4674503477652054      65.609404173182497
   110   1   2.4 -1.4997388508859269e-16      8.2011755216478086      68.343129347065101
   111   1   2.4      2.7337251738826027      5.4674503477652054      68.343129347065101
   112   1   2.4      2.7337251738826027      8.2011755216478086      65.609404173182497
   113   1   2.4                       0      5.4674503477652054      71.076854520947705
   114   1   2.4 -1.4997388508859269e-16      8.2011755216478086      73.810579694830295
   115   1   2.4      2.7337251738826027      5.4674503477652054      73.810579694830295
   116   1   2.4      2.7337251738826027      8.2011755216478086      71.076854520947705
   117   1   2.4                       0      5.4674503477652054      76.544304868712899
   118   1   2.4 -1.4997388508859269e-16      8.2011755216478086      79.278030042595503
   119   1   2.4      2.7337251738826027      5.4674503477652054      79.278030042595503
   120   1   2.4      2.7337251738826027      8.2011755216478086      76.544304868712899
   121   1   2.4                       0      10.934900695530411                       0
   122   1   2.4 -1.4997388508859269e-16      13.668625869413017      2.7337251738826041
   123   1   2.4      2.7337251738826027      10.934900695530411      2.7337251738826041
   124   1   2.4      2.7337251738826027      13.668625869413017  2.9995703239834954e-16
   125   1   2.4                       0      10.934900695530411      5.4674503477652081
   126   1   2.4 -1.4997388508859269e-16      13.668625869413017      8.2011755216478122
   127   1   2.4      2.7337251738826027      10.934900695530411      8.2011755216478122
   128   1   2.4      2.7337251738826027      13.668625869413017      5.4674503477652081
   129   1   2.4                       0      10.934900695530411      10.934900695530416
   130   1   2.4 -1.4997388508859269e-16      13.668625869413017       13.66862586941302
   131   1   2.4      2.7337251738826027      10.934900695530411       13.66862586941302
   132   1   2.4      2.7337251738826027      13.668625869413017      10.934900695530416
   133   1   2.4                       0      10.934900695530411      16.402351043295624
   134   1   2.4 -1.4997388508859269e-16      13.668625869413017      19.136076217178225
   135   1   2.4      2.7337251738826027      10.934900695530411      19.136076217178225
   136   1   2.4      2.7337251738826027      13.668625869413017      16.402351043295624
   137   1   2.4                       0      10.934900695530411      21.869801391060832
   138   1   2.4 -1.4997388508859269e-16      13.668625869413017      24.603526564943436
   139   1   2.4      2.7337251738826027      10.934900695530411      24.603526564943436
   140   1   2.4      2.7337251738826027      13.668625869413017      21.869801391060832
   141   1   2.4                       0      10.934900695530411      27.337251738826041
   142   1   2.4 -1.4997388508859269e-16      13.668625869413017      30.070976912708637
   143   1   2.4      2.7337251738826027      10.934900695530411      30.070976912708637
   144   1   2.4      2.7337251738826027      13.668625869413017      27.337251738826041
   145   1   2.4                       0      10.934900695530411      32.804702086591249
   146   1   2.4 -1.4997388508859269e-16      13.668625869413017      35.538427260473853
   147   1   2.4      2.7337251738826027      10.934900695530411      35.538427260473853
   148   1   2.4      2.7337251738826027      13.668625869413017      32.804702086591249
   149   1   2.4                       0      10.934900695530411       38.27215243435645
   150   1   2.4 -1.4997388508859269e-16      13.668625869413017      41.005877608239047
   151   1   2.4      2.7337251738826027      10.934900695530411      41.005877608239047
   152   1   2.4      2.7337251738826027      13.668625869413017       38.27215243435645
   153   1   2.4                       0      10.934900695530411      43.739602782121665
   154   1   2.4 -1.4997388508859269e-16      13.668625869413017      46.473327956004269
   155   1   2.4      2.7337251738826027      10.934900695530411      46.473327956004269
   156   1   2.4      2.7337251738826027      13.668625869413017      43.739602782121665
   157   1   2.4                       0      10.934900695530411      49.207053129886873
   158   1   2.4 -1.4997388508859269e-16      13.668625869413017      51.940778303769477
   159   1   2.4      2.7337251738826027      10.934900695530411      51.940778303769477
   160   1   2.4      2.7337251738826027      13.668625869413017      49.207053129886873
   161   1   2.4                       0      10.934900695530411      54.674503477652081
   162   1   2.4 -1.4997388508859269e-16      13.668625869413017      57.408228651534671
   163   1   2.4      2.7337251738826027      10.934900695530411      57.408228651534671
   164   1   2.4      2.7337251738826027      13.668625869413017      54.674503477652081
   165   1   2.4                       0      10.934900695530411      60.141953825417275
   166   1   2.4 -1.4997388508859269e-16      13.668625869413017      62.875678999299879
   167   1   2.4      2.7337251738826027      10.934900695530411      62.875678999299879
   168   1   2.4      2.7337251738826027      13.668625869413017      60.141953825417275
   169   1   2.4                       0      10.934900695530411      65.609404173182497
   170   1   2.4 -1.4997388508859269e-16      13.668625869413017      68.343129347065101
   171   1   2.4      2.7337251738826027      10.934900695530411      68.343129347065101
   172   1   2.4      2.7337251738826027      13.668625869413017      65.609404173182497
   173   1   2.4                       0      10.934900695530411      71.076854520947705
   174   1   2.4 -1.4997388508859269e-16      13.668625869413017      73.810579694830295
   175   1   2.4      2.7337251738826027      10.934900695530411      73.810579694830295
   176   1   2.4      2.7337251738826027      13.668625869413017      71.076854520947705
   177   1   2.4                       0      10.934900695530411      76.544304868712899
   178   1   2.4 -1.4997388508859269e-16      13.668625869413017      79.278030042595503
   179   1   2.4      2.7337251738826027      10.934900695530411      79.278030042595503
   180   1   2.4      2.7337251738826027      13.668625869413017      76.544304868712899
   181   1   2.4                       0      16.402351043295617                       0
   182   1   2.4 -1.4997388508859269e-16      19.136076217178221      2.7337251738826041
   183   1   2.4      2.7337251738826027      16.402351043295617      2.7337251738826041
   184   1   2.4      2.7337251738826027      19.136076217178221  2.9995703239834954e-16
   185   1   2.4                       0      16.402351043295617      5.4674503477652081
   186   1   2.4 -1.4997388508859269e-16      19.136076217178221      8.2011755216478122
   187   1   2.4      2.7337251738826027      16.402351043295617      8.2011755216478122
   188   1   2.4      2.7337251738826027      19.136076217178221      5.4674503477652081
   189   1   2.4                       0      16.402351043295617      10.934900695530416
   190   1   2.4 -1.4997388508859269e-16      19.136076217178221       13.66862586941302
   191   1   2.4      2.7337251738826027      16.402351043295617       13.66862586941302
   192   1   2.4      2.7337251738826027      19.136076217178221      10.934900695530416
   193   1   2.4                       0      16.402351043295617      16.402351043295624
   194   1   2.4 -1.4997388508859269e-16      19.136076217178221      19.136076217178225
   195   1   2.4      2.7337251738826027      16.402351043295617      19.136076217178225
   196   1   2.4      2.7337251738826027      19.136076217178221      16.402351043295624
   197   1   2.4                       0      16.402351043295617      21.869801391060832
   198   1   2.4 -1.4997388508859269e-16      19.136076217178221      24.603526564943436
   199   1   2.4      2.7337251738826027      16.402351043295617      24.603526564943436
   200   1   2.4      2.7337251738826027      19.136076217178221      21.869801391060832
   201   1   2.4                       0      16.402351043295617      27.337251738826041
   202   1   2.4 -1.4997388508859269e-16      19.136076217178221      30.070976912708637
   203   1   2.4      2.7337251738826027      16.402351043295617      30.070976912708637
   204   1   2.4      2.7337251738826027      19.136076217178221      27.337251738826041
   205   1   2.4                       0      16.402351043295617      32.804702086591249
   206   1   2.4 -1.4997388508859269e-16      19.136076217178221      35.538427260473853
   207   1   2.4      2.7337251738826027      16.402351043295617      35.538427260473853
   208   1   2.4      2.7337251738826027      19.136076217178221      32.804702086591249
   209   1   2.4                       0      16.402351043295617       38.27215243435645
   210   1   2.4 -1.4997388508859269e-16      19.136076217178221      41.005877608239047
   211   1   2.4      2.7337251738826027      16.402351043295617      41.005877608239047
   212   1   2.4      2.7337251738826027      19.136076217178221       38.27215243435645
   213   1   2.4                       0      16.402351043295617      43.739602782121665
   214   1   2.4 -1.4997388508859269e-16      19.136076217178221      46.473327956004269
   215   1   2.4      2.7337251738826027      16.402351043295617      46.473327956004269
   216   1   2.4      2.7337251738826027      19.136076217178221      43.739602782121665
   217   1   2.4                       0      16.402351043295617      49.207053129886873
   218   1   2.4 -1.4997388508859269e-16      19.136076217178221      51.940778303769477
   219   1   2.4      2.7337251738826027      16.402351043295617      51.940778303769477
   220   1   2.4      2.7337251738826027      19.136076217178221      49.207053129886873
   221   1   2.4                       0      16.402351043295617      54.674503477652081
   222   1   2.4 -1.4997388508859269e-16      19.136076217178221      57.408228651534671
   223   1   2.4      2.7337251738826027      16.402351043295617      57.408228651534671
   224   1   2.4      2.7337251738826027      19.136076217178221      54.674503477652081
   225   1   2.4                       0      16.402351043295617      60.141953825417275
   226   1   2.4 -1.4997388508859269e-16      19.136076217178221      62.875678999299879
   227   1   2.4      2.7337251738826027      16.402351043295617      62.875678999299879
   228   1   2.4      2.7337251738826027      19.136076217178221      60.141953825417275
   229   1   2.4                       0      16.402351043295617      65.609404173182497
   230   1   2.4 -1.4997388508859269e-16      19.136076217178221      68.343129347065101
   231   1   2.4      2.7337251738826027      16.402351043295617      68.343129347065101
   232   1   2.4      2.7337251738826027      19.136076217178221      65.609404173182497
   233   1   2.4                       0      16.402351043295617      71.076854520947705
   234   1   2.4 -1.4997388508859269e-16      19.136076217178221      73.810579694830295
   235   1   2.4      2.7337251738826027      16.402351043295617      73.810579694830295
   236   1   2.4      2.7337251738826027      19.136076217178221      71.076854520947705
   237   1   2.4                       0      16.402351043295617      76.544304868712899
   238   1   2.4 -1.4997388508859269e-16      19.136076217178221      79.278030042595503
   239   1   2.4      2.7337251738826027      16.402351043295617      79.278030042595503
   240   1   2.4      2.7337251738826027      19.136076217178221      76.544304868712899
   241   1   2.4                       0      21.869801391060818                       0
   242   1   2.4 -1.4997388508859269e-16      24.603526564943429      2.7337251738826041
   243   1   2.4      2.7337251738826027      21.869801391060818      2.7337251738826041
   244   1   2.4      2.7337251738826027      24.603526564943429  2.9995703239834954e-16
   245   1   2.4                       0      21.869801391060818      5.4674503477652081
   246   1   2.4 -1.4997388508859269e-16      24.603526564943429      8.2011755216478122
   247   1   2.4      2.7337251738826027      21.869801391060818      8.2011755216478122
   248   1   2.4      2.7337251738826027      24.603526564943429      5.4674503477652081
   249   1   2.4                       0      21.869801391060818      10.934900695530416
   250   1   2.4 -1.4997388508859269e-16      24.603526564943429       13.66862586941302
   251   1   2.4      2.7337251738826027      21.869801391060818       13.66862586941302
   252   1   2.4      2.7337251738826027      24.603526564943429      10.934900695530416
   253   1   2.4                       0      21.869801391060818      16.402351043295624
   254   1   2.4 -1.4997388508859269e-16      24.603526564943429      19.136076217178225
   255   1   2.4      2.7337251738826027      21.869801391060818      19.136076217178225
   256   1   2.4      2.7337251738826027      24.603526564943429      16.402351043295624
   257   1   2.4                       0      21.869801391060818      21.869801391060832
   258   1   2.4 -1.4997388508859269e-16      24.603526564943429      24.603526564943436
   259   1   2.4      2.7337251738826027      21.869801391060818      24.603526564943436
   260   1   2.4      2.7337251738826027      24.603526564943429      21.869801391060832
   261   1   2.4                       0      21.869801391060818      27.337251738826041
   262   1   2.4 -1.4997388508859269e-16      24.603526564943429      30.070976912708637
   263   1   2.4      2.7337251738826027      21.869801391060818      30.070976912708637
   264   1   2.4      2.7337251738826027      24.603526564943429      27.337251738826041
   265   1   2.4                       0      21.869801391060818      32.804702086591249
   266   1   2.4 -1.4997388508859269e-16      24.603526564943429      35.538427260473853
   267   1   2.4      2.7337251738826027      21.869801391060818      35.538427260473853
   268   1   2.4      2.7337251738826027      24.603526564943429      32.804702086591249
   269   1   2.4                       0      21.869801391060818       38.27215243435645
   270   1   2.4 -1.4997388508859269e-16      24.603526564943429      41.005877608239047
   271   1   2.4      2.7337251738826027      21.869801391060818      41.005877608239047
   272   1   2.4      2.7337251738826027      24.603526564943429       38.27215243435645
   273   1   2.4                       0      21.869801391060818      43.739602782121665
   274   1   2.4 -1.4997388508859269e-16      24.603526564943429      46.473327956004269
   275   1   2.4      2.7337251738826027      21.869801391060818      46.473327956004269
   276   1   2.4      2.7337251738826027      24.603526564943429      43.739602782121665
   277   1   2.4                       0      21.869801391060818      49.207053129886873
   278   1   2.4 -1.4997388508859269e-16      24.603526564943429      51.940778303769477
   279   1   2.4      2.7337251738826027      21.869801391060818      51.940778303769477
   280   1   2.4      2.7337251738826027      24.603526564943429      49.207053129886873
   281   1   2.4                       0      21.869801391060818      54.674503477652081
   282   1   2.4 -1.4997388508859269e-16      24.603526564943429      57.408228651534671
   283   1   2.4      2.7337251738826027      21.869801391060818      57.408228651534671
   284   1   2.4      2.7337251738826027      24.603526564943429      54.674503477652081
   285   1   2.4                       0      21.869801391060818      60.141953825417275
   286   1   2.4 -1.4997388508859269e-16      24.603526564943429      62.875678999299879
   287   1   2.4      2.7337251738826027      21.869801391060818      62.875678999299879
   288   1   2.4      2.7337251738826027      24.603526564943429      60.141953825417275
   289   1   2.4                       0      21.869801391060818      65.609404173182497
   290   1   2.4 -1.4997388508859269e-16      24.603526564943429      68.343129347065101
   291   1   2.4      2.7337251738826027      21.869801391060818      68.343129347065101
   292   1   2.4      2.7337251738826027      24.603526564943429      65.609404173182497
   293   1   2.4                       0      21.869801391060818      71.076854520947705
   294   1   2.4 -1.4997388508859269e-16      24.603526564943429      73.810579694830295
   295   1   2.4      2.7337251738826027      21.869801391060818      73.810579694830295
   296   1   2.4      2.7337251738826027      24.603526564943429      71.076854520947705
   297   1   2.4                       0      21.869801391060818      76.544304868712899
   298   1   2.4 -1.4997388508859269e-16      24.603526564943429      79.278030042595503
   299   1   2.4      2.7337251738826027      21.869801391060818      79.278030042595503
   300   1   2.4      2.7337251738826027      24.603526564943429      76.544304868712899
   301   1   2.4                       0      27.337251738826033                       0
   302   1   2.4 -1.4997388508859269e-16      30.070976912708637      2.7337251738826041
   303   1   2.4      2.7337251738826027      27.337251738826033      2.7337251738826041
   304   1   2.4      2.7337251738826027      30.070976912708637  2.9995703239834954e-16
   305   1   2.4                       0      27.337251738826033      5.4674503477652081
   306   1   2.4 -1.4997388508859269e-16      30.070976912708637      8.2011755216478122
   307   1   2.4      2.7337251738826027      27.337251738826033      8.2011755216478122
   308   1   2.4      2.7337251738826027      30.070976912708637      5.4674503477652081
   309   1   2.4                       0      27.337251738826033      10.934900695530416
   310   1   2.4 -1.4997388508859269e-16      30.070976912708637       13.66862586941302
   311   1   2.4      2.7337251738826027      27.337251738826033       13.66862586941302
   312   1   2.4      2.7337251738826027      30.070976912708637      10.934900695530416
   313   1   2.4                       0      27.337251738826033      16.402351043295624
   314   1   2.4 -1.4997388508859269e-16      30.070976912708637      19.136076217178225
   315   1   2.4      2.7337251738826027      27.337251738826033      19.136076217178225
   316   1   2.4      2.7337251738826027      30.070976912708637      16.402351043295624
   317   1   2.4                       0      27.337251738826033      21.869801391060832
   318   1   2.4 -1.4997388508859269e-16      30.070976912708637      24.603526564943436
   319   1   2.4      2.7337251738826027      27.337251738826033      24.603526564943436
   320   1   2.4      2.7337251738826027      30.070976912708637      21.869801391060832
   321   1   2.4                       0      27.337251738826033      27.337251738826041
   322   1   2.4 -1.4997388508859269e-16      30.070976912708637      30.070976912708637
   323   1   2.4      2.7337251738826027      27.337251738826033      30.070976912708637
   324   1   2.4      2.7337251738826027      30.070976912708637      27.337251738826041
   325   1   2.4                       0      27.337251738826033      32.804702086591249
   326   1   2.4 -1.4997388508859269e-16      30.070976912708637      35.538427260473853
   327   1   2.4      2.7337251738826027      27.337251738826033      35.538427260473853
   328   1   2.4      2.7337251738826027      30.070976912708637      32.804702086591249
   329   1   2.4                       0      27.337251738826033       38.27215243435645
   330   1   2.4 -1.4997388508859269e-16      30.070976912708637      41.005877608239047
   331   1   2.4      2.7337251738826027      27.337251738826033      41.005877608239047
   332   1   2.4      2.7337251738826027      30.070976912708637       38.27215243435645
   333   1   2.4                       0      27.337251738826033      43.739602782121665
   334   1   2.4 -1.4997388508859269e-16      30.070976912708637      46.473327956004269
   335   1   2.4      2.7337251738826027      27.337251738826033      46.473327956004269